; rosavin_new_GMX.itp created by acpype (v: 2023.10.27) 
[ atomtypes ]
;name   bond_type     mass     charge   ptype   sigma         epsilon       Amb
 oh       oh          0.00000  0.00000   A     3.24287e-01   3.89112e-01 ; 1.82  0.0930
 c6       c6          0.00000  0.00000   A     3.39771e-01   4.51035e-01 ; 1.91  0.1078
 os       os          0.00000  0.00000   A     3.15610e-01   3.03758e-01 ; 1.77  0.0726
 c3       c3          0.00000  0.00000   A     3.39771e-01   4.51035e-01 ; 1.91  0.1078
 c2       c2          0.00000  0.00000   A     3.31521e-01   4.13379e-01 ; 1.86  0.0988
 ce       ce          0.00000  0.00000   A     3.31521e-01   4.13379e-01 ; 1.86  0.0988
 ca       ca          0.00000  0.00000   A     3.31521e-01   4.13379e-01 ; 1.86  0.0988
 ho       ho          0.00000  0.00000   A     5.37925e-02   1.96648e-02 ; 0.30  0.0047
 h1       h1          0.00000  0.00000   A     2.42200e-01   8.70272e-02 ; 1.36  0.0208
 h2       h2          0.00000  0.00000   A     2.24382e-01   8.70272e-02 ; 1.26  0.0208
 ha       ha          0.00000  0.00000   A     2.62548e-01   6.73624e-02 ; 1.47  0.0161

[ moleculetype ]
;name            nrexcl
 rosavin_new      3

[ atoms ]
;   nr  type  resi  res  atom  cgnr     charge      mass       ; qtot   bond_type
     1   oh     1   UNL    O1    1    -0.387906     16.00000 ; qtot -0.388
     2   c6     1   UNL    C1    2     0.106010     12.01000 ; qtot -0.282
     3   c6     1   UNL    C2    3     0.078519     12.01000 ; qtot -0.203
     4   os     1   UNL    O2    4    -0.347100     16.00000 ; qtot -0.550
     5   c6     1   UNL    C3    5     0.185800     12.01000 ; qtot -0.365
     6   os     1   UNL    O3    6    -0.347087     16.00000 ; qtot -0.712
     7   c3     1   UNL    C4    7     0.078922     12.01000 ; qtot -0.633
     8   c6     1   UNL    C5    8     0.112682     12.01000 ; qtot -0.520
     9   os     1   UNL    O4    9    -0.341380     16.00000 ; qtot -0.862
    10   c6     1   UNL    C6   10     0.186494     12.01000 ; qtot -0.675
    11   os     1   UNL    O5   11    -0.345761     16.00000 ; qtot -1.021
    12   c3     1   UNL    C7   12     0.068328     12.01000 ; qtot -0.952
    13   c2     1   UNL    C8   13    -0.058279     12.01000 ; qtot -1.011
    14   ce     1   UNL    C9   14    -0.056713     12.01000 ; qtot -1.067
    15   ca     1   UNL   C10   15    -0.025905     12.01000 ; qtot -1.093
    16   ca     1   UNL   C11   16    -0.054998     12.01000 ; qtot -1.148
    17   ca     1   UNL   C12   17    -0.061676     12.01000 ; qtot -1.210
    18   ca     1   UNL   C13   18    -0.062230     12.01000 ; qtot -1.272
    19   ca     1   UNL   C14   19    -0.061676     12.01000 ; qtot -1.334
    20   ca     1   UNL   C15   20    -0.054998     12.01000 ; qtot -1.389
    21   c6     1   UNL   C16   21     0.133257     12.01000 ; qtot -1.256
    22   oh     1   UNL    O6   22    -0.384992     16.00000 ; qtot -1.641
    23   c6     1   UNL   C17   23     0.113338     12.01000 ; qtot -1.527
    24   oh     1   UNL    O7   24    -0.387403     16.00000 ; qtot -1.915
    25   c6     1   UNL   C18   25     0.111102     12.01000 ; qtot -1.804
    26   oh     1   UNL    O8   26    -0.387505     16.00000 ; qtot -2.191
    27   c6     1   UNL   C19   27     0.133218     12.01000 ; qtot -2.058
    28   oh     1   UNL    O9   28    -0.384993     16.00000 ; qtot -2.443
    29   c6     1   UNL   C20   29     0.112956     12.01000 ; qtot -2.330
    30   oh     1   UNL   O10   30    -0.387417     16.00000 ; qtot -2.717
    31   ho     1   UNL    H1   31     0.210708      1.00800 ; qtot -2.507
    32   h1     1   UNL    H2   32     0.065391      1.00800 ; qtot -2.441
    33   h1     1   UNL    H3   33     0.059649      1.00800 ; qtot -2.382
    34   h1     1   UNL    H4   34     0.059649      1.00800 ; qtot -2.322
    35   h2     1   UNL    H5   35     0.095286      1.00800 ; qtot -2.227
    36   h1     1   UNL    H6   36     0.059661      1.00800 ; qtot -2.167
    37   h1     1   UNL    H7   37     0.059661      1.00800 ; qtot -2.107
    38   h1     1   UNL    H8   38     0.065815      1.00800 ; qtot -2.042
    39   h2     1   UNL    H9   39     0.095311      1.00800 ; qtot -1.946
    40   h1     1   UNL   H10   40     0.061333      1.00800 ; qtot -1.885
    41   h1     1   UNL   H11   41     0.061333      1.00800 ; qtot -1.824
    42   ha     1   UNL   H12   42     0.060039      1.00800 ; qtot -1.764
    43   ha     1   UNL   H13   43     0.062655      1.00800 ; qtot -1.701
    44   ha     1   UNL   H14   44     0.062906      1.00800 ; qtot -1.638
    45   ha     1   UNL   H15   45     0.062294      1.00800 ; qtot -1.576
    46   ha     1   UNL   H16   46     0.062273      1.00800 ; qtot -1.513
    47   ha     1   UNL   H17   47     0.062294      1.00800 ; qtot -1.451
    48   ha     1   UNL   H18   48     0.062906      1.00800 ; qtot -1.388
    49   h1     1   UNL   H19   49     0.068376      1.00800 ; qtot -1.320
    50   ho     1   UNL   H20   50     0.210855      1.00800 ; qtot -1.109
    51   h1     1   UNL   H21   51     0.065900      1.00800 ; qtot -1.043
    52   ho     1   UNL   H22   52     0.210728      1.00800 ; qtot -0.832
    53   h1     1   UNL   H23   53     0.065799      1.00800 ; qtot -0.767
    54   ho     1   UNL   H24   54     0.210726      1.00800 ; qtot -0.556
    55   h1     1   UNL   H25   55     0.068375      1.00800 ; qtot -0.487
    56   ho     1   UNL   H26   56     0.210855      1.00800 ; qtot -0.277
    57   h1     1   UNL   H27   57     0.065887      1.00800 ; qtot -0.211
    58   ho     1   UNL   H28   58     0.210728      1.00800 ; qtot -0.000

[ bonds ]
;   ai     aj funct   r             k
     1      2   1    1.4241e-01    2.3870e+05 ;     O1 - C1    
     1     31   1    9.7250e-02    4.4811e+05 ;     O1 - H1    
     2      3   1    1.5384e-01    1.8979e+05 ;     C1 - C2    
     2     29   1    1.5384e-01    1.8979e+05 ;     C1 - C20   
     2     32   1    1.0984e-01    2.8620e+05 ;     C1 - H2    
     3      4   1    1.4300e-01    2.3412e+05 ;     C2 - O2    
     3     33   1    1.0984e-01    2.8620e+05 ;     C2 - H3    
     3     34   1    1.0984e-01    2.8620e+05 ;     C2 - H4    
     4      5   1    1.4300e-01    2.3412e+05 ;     O2 - C3    
     5      6   1    1.4300e-01    2.3412e+05 ;     C3 - O3    
     5     27   1    1.5384e-01    1.8979e+05 ;     C3 - C19   
     5     35   1    1.0985e-01    2.8609e+05 ;     C3 - H5    
     6      7   1    1.4273e-01    2.3620e+05 ;     O3 - C4    
     7      8   1    1.5428e-01    1.8728e+05 ;     C4 - C5    
     7     36   1    1.0969e-01    2.8804e+05 ;     C4 - H6    
     7     37   1    1.0969e-01    2.8804e+05 ;     C4 - H7    
     8      9   1    1.4300e-01    2.3412e+05 ;     C5 - O4    
     8     25   1    1.5384e-01    1.8979e+05 ;     C5 - C18   
     8     38   1    1.0984e-01    2.8620e+05 ;     C5 - H8    
     9     10   1    1.4300e-01    2.3412e+05 ;     O4 - C6    
    10     11   1    1.4300e-01    2.3412e+05 ;     C6 - O5    
    10     21   1    1.5384e-01    1.8979e+05 ;     C6 - C16   
    10     39   1    1.0985e-01    2.8609e+05 ;     C6 - H9    
    11     12   1    1.4273e-01    2.3620e+05 ;     O5 - C7    
    12     13   1    1.5088e-01    2.0786e+05 ;     C7 - C8    
    12     40   1    1.0969e-01    2.8804e+05 ;     C7 - H10   
    12     41   1    1.0969e-01    2.8804e+05 ;     C7 - H11   
    13     14   1    1.3457e-01    3.5505e+05 ;     C8 - C9    
    13     42   1    1.0882e-01    2.9898e+05 ;     C8 - H12   
    14     15   1    1.4800e-01    2.2748e+05 ;     C9 - C10   
    14     43   1    1.0880e-01    2.9923e+05 ;     C9 - H13   
    15     16   1    1.3986e-01    2.9644e+05 ;    C10 - C11   
    15     20   1    1.3986e-01    2.9644e+05 ;    C10 - C15   
    16     17   1    1.3986e-01    2.9644e+05 ;    C11 - C12   
    16     44   1    1.0860e-01    3.0183e+05 ;    C11 - H14   
    17     18   1    1.3986e-01    2.9644e+05 ;    C12 - C13   
    17     45   1    1.0860e-01    3.0183e+05 ;    C12 - H15   
    18     19   1    1.3986e-01    2.9644e+05 ;    C13 - C14   
    18     46   1    1.0860e-01    3.0183e+05 ;    C13 - H16   
    19     20   1    1.3986e-01    2.9644e+05 ;    C14 - C15   
    19     47   1    1.0860e-01    3.0183e+05 ;    C14 - H17   
    20     48   1    1.0860e-01    3.0183e+05 ;    C15 - H18   
    21     22   1    1.4241e-01    2.3870e+05 ;    C16 - O6    
    21     23   1    1.5384e-01    1.8979e+05 ;    C16 - C17   
    21     49   1    1.0984e-01    2.8620e+05 ;    C16 - H19   
    22     50   1    9.7250e-02    4.4811e+05 ;     O6 - H20   
    23     24   1    1.4241e-01    2.3870e+05 ;    C17 - O7    
    23     25   1    1.5384e-01    1.8979e+05 ;    C17 - C18   
    23     51   1    1.0984e-01    2.8620e+05 ;    C17 - H21   
    24     52   1    9.7250e-02    4.4811e+05 ;     O7 - H22   
    25     26   1    1.4241e-01    2.3870e+05 ;    C18 - O8    
    25     53   1    1.0984e-01    2.8620e+05 ;    C18 - H23   
    26     54   1    9.7250e-02    4.4811e+05 ;     O8 - H24   
    27     28   1    1.4241e-01    2.3870e+05 ;    C19 - O9    
    27     29   1    1.5384e-01    1.8979e+05 ;    C19 - C20   
    27     55   1    1.0984e-01    2.8620e+05 ;    C19 - H25   
    28     56   1    9.7250e-02    4.4811e+05 ;     O9 - H26   
    29     30   1    1.4241e-01    2.3870e+05 ;    C20 - O10   
    29     57   1    1.0984e-01    2.8620e+05 ;    C20 - H27   
    30     58   1    9.7250e-02    4.4811e+05 ;    O10 - H28   

[ pairs ]
;   ai     aj    funct
     1      4      1 ;     O1 - O2    
     1     27      1 ;     O1 - C19   
     1     30      1 ;     O1 - O10   
     1     33      1 ;     O1 - H3    
     1     34      1 ;     O1 - H4    
     1     57      1 ;     O1 - H27   
     2      5      1 ;     C1 - C3    
     2     28      1 ;     C1 - O9    
     2     55      1 ;     C1 - H25   
     2     58      1 ;     C1 - H28   
     3      6      1 ;     C2 - O3    
     3     27      1 ;     C2 - C19   
     3     30      1 ;     C2 - O10   
     3     35      1 ;     C2 - H5    
     3     57      1 ;     C2 - H27   
     4      7      1 ;     O2 - C4    
     4     28      1 ;     O2 - O9    
     4     29      1 ;     O2 - C20   
     4     32      1 ;     O2 - H2    
     4     55      1 ;     O2 - H25   
     5      8      1 ;     C3 - C5    
     5     30      1 ;     C3 - O10   
     5     33      1 ;     C3 - H3    
     5     34      1 ;     C3 - H4    
     5     36      1 ;     C3 - H6    
     5     37      1 ;     C3 - H7    
     5     56      1 ;     C3 - H26   
     5     57      1 ;     C3 - H27   
     6      9      1 ;     O3 - O4    
     6     25      1 ;     O3 - C18   
     6     28      1 ;     O3 - O9    
     6     29      1 ;     O3 - C20   
     6     38      1 ;     O3 - H8    
     6     55      1 ;     O3 - H25   
     7     10      1 ;     C4 - C6    
     7     23      1 ;     C4 - C17   
     7     26      1 ;     C4 - O8    
     7     27      1 ;     C4 - C19   
     7     35      1 ;     C4 - H5    
     7     53      1 ;     C4 - H23   
     8     11      1 ;     C5 - O5    
     8     21      1 ;     C5 - C16   
     8     24      1 ;     C5 - O7    
     8     39      1 ;     C5 - H9    
     8     51      1 ;     C5 - H21   
     8     54      1 ;     C5 - H24   
     9     12      1 ;     O4 - C7    
     9     22      1 ;     O4 - O6    
     9     23      1 ;     O4 - C17   
     9     26      1 ;     O4 - O8    
     9     36      1 ;     O4 - H6    
     9     37      1 ;     O4 - H7    
     9     49      1 ;     O4 - H19   
     9     53      1 ;     O4 - H23   
    10     13      1 ;     C6 - C8    
    10     24      1 ;     C6 - O7    
    10     25      1 ;     C6 - C18   
    10     38      1 ;     C6 - H8    
    10     40      1 ;     C6 - H10   
    10     41      1 ;     C6 - H11   
    10     50      1 ;     C6 - H20   
    10     51      1 ;     C6 - H21   
    11     14      1 ;     O5 - C9    
    11     22      1 ;     O5 - O6    
    11     23      1 ;     O5 - C17   
    11     42      1 ;     O5 - H12   
    11     49      1 ;     O5 - H19   
    12     15      1 ;     C7 - C10   
    12     21      1 ;     C7 - C16   
    12     39      1 ;     C7 - H9    
    12     43      1 ;     C7 - H13   
    13     16      1 ;     C8 - C11   
    13     20      1 ;     C8 - C15   
    14     17      1 ;     C9 - C12   
    14     19      1 ;     C9 - C14   
    14     40      1 ;     C9 - H10   
    14     41      1 ;     C9 - H11   
    14     44      1 ;     C9 - H14   
    14     48      1 ;     C9 - H18   
    15     18      1 ;    C10 - C13   
    15     42      1 ;    C10 - H12   
    15     45      1 ;    C10 - H15   
    15     47      1 ;    C10 - H17   
    16     19      1 ;    C11 - C14   
    16     43      1 ;    C11 - H13   
    16     46      1 ;    C11 - H16   
    16     48      1 ;    C11 - H18   
    17     20      1 ;    C12 - C15   
    17     47      1 ;    C12 - H17   
    18     44      1 ;    C13 - H14   
    18     48      1 ;    C13 - H18   
    19     45      1 ;    C14 - H15   
    20     43      1 ;    C15 - H13   
    20     44      1 ;    C15 - H14   
    20     46      1 ;    C15 - H16   
    21     26      1 ;    C16 - O8    
    21     52      1 ;    C16 - H22   
    21     53      1 ;    C16 - H23   
    22     24      1 ;     O6 - O7    
    22     25      1 ;     O6 - C18   
    22     39      1 ;     O6 - H9    
    22     51      1 ;     O6 - H21   
    23     38      1 ;    C17 - H8    
    23     39      1 ;    C17 - H9    
    23     50      1 ;    C17 - H20   
    23     54      1 ;    C17 - H24   
    24     26      1 ;     O7 - O8    
    24     49      1 ;     O7 - H19   
    24     53      1 ;     O7 - H23   
    25     36      1 ;    C18 - H6    
    25     37      1 ;    C18 - H7    
    25     49      1 ;    C18 - H19   
    25     52      1 ;    C18 - H22   
    26     38      1 ;     O8 - H8    
    26     51      1 ;     O8 - H21   
    27     32      1 ;    C19 - H2    
    27     58      1 ;    C19 - H28   
    28     30      1 ;     O9 - O10   
    28     35      1 ;     O9 - H5    
    28     57      1 ;     O9 - H27   
    29     33      1 ;    C20 - H3    
    29     34      1 ;    C20 - H4    
    29     35      1 ;    C20 - H5    
    29     56      1 ;    C20 - H26   
    30     32      1 ;    O10 - H2    
    30     55      1 ;    O10 - H25   
    31      3      1 ;     H1 - C2    
    31     29      1 ;     H1 - C20   
    31     32      1 ;     H1 - H2    
    32     33      1 ;     H2 - H3    
    32     34      1 ;     H2 - H4    
    32     57      1 ;     H2 - H27   
    35     55      1 ;     H5 - H25   
    36     38      1 ;     H6 - H8    
    37     38      1 ;     H7 - H8    
    38     53      1 ;     H8 - H23   
    39     49      1 ;     H9 - H19   
    40     42      1 ;    H10 - H12   
    41     42      1 ;    H11 - H12   
    42     43      1 ;    H12 - H13   
    44     45      1 ;    H14 - H15   
    45     46      1 ;    H15 - H16   
    46     47      1 ;    H16 - H17   
    47     48      1 ;    H17 - H18   
    49     50      1 ;    H19 - H20   
    49     51      1 ;    H19 - H21   
    51     52      1 ;    H21 - H22   
    51     53      1 ;    H21 - H23   
    53     54      1 ;    H23 - H24   
    55     56      1 ;    H25 - H26   
    55     57      1 ;    H25 - H27   
    57     58      1 ;    H27 - H28   

[ angles ]
;   ai     aj     ak    funct   theta         cth
     1      2      3      1    1.1005e+02    6.4065e+02 ;     O1 - C1     - C2    
     1      2     29      1    1.1005e+02    6.4065e+02 ;     O1 - C1     - C20   
     1      2     32      1    1.0996e+02    4.7187e+02 ;     O1 - C1     - H2    
     2      1     31      1    1.0707e+02    5.4584e+02 ;     C1 - O1     - H1    
     2      3      4      1    1.1009e+02    6.3948e+02 ;     C1 - C2     - O2    
     2      3     33      1    1.0918e+02    3.6217e+02 ;     C1 - C2     - H3    
     2      3     34      1    1.0918e+02    3.6217e+02 ;     C1 - C2     - H4    
     2     29     27      1    1.1106e+02    5.0359e+02 ;     C1 - C20    - C19   
     2     29     30      1    1.1005e+02    6.4065e+02 ;     C1 - C20    - O10   
     2     29     57      1    1.0918e+02    3.6217e+02 ;     C1 - C20    - H27   
     3      2     29      1    1.1106e+02    5.0359e+02 ;     C2 - C1     - C20   
     3      2     32      1    1.0918e+02    3.6217e+02 ;     C2 - C1     - H2    
     3      4      5      1    1.1330e+02    7.3873e+02 ;     C2 - O2     - C3    
     4      3     33      1    1.0808e+02    4.7430e+02 ;     O2 - C2     - H3    
     4      3     34      1    1.0808e+02    4.7430e+02 ;     O2 - C2     - H4    
     4      5      6      1    1.0950e+02    8.1613e+02 ;     O2 - C3     - O3    
     4      5     27      1    1.1009e+02    6.3948e+02 ;     O2 - C3     - C19   
     4      5     35      1    1.0944e+02    4.7137e+02 ;     O2 - C3     - H5    
     5      6      7      1    1.1513e+02    7.3354e+02 ;     C3 - O3     - C4    
     5     27     28      1    1.1005e+02    6.4065e+02 ;     C3 - C19    - O9    
     5     27     29      1    1.1106e+02    5.0359e+02 ;     C3 - C19    - C20   
     5     27     55      1    1.0918e+02    3.6217e+02 ;     C3 - C19    - H25   
     6      5     27      1    1.1009e+02    6.3948e+02 ;     O3 - C3     - C19   
     6      5     35      1    1.0944e+02    4.7137e+02 ;     O3 - C3     - H5    
     6      7      8      1    1.0855e+02    6.4342e+02 ;     O3 - C4     - C5    
     6      7     36      1    1.1034e+02    4.7028e+02 ;     O3 - C4     - H6    
     6      7     37      1    1.1034e+02    4.7028e+02 ;     O3 - C4     - H7    
     7      8      9      1    1.0683e+02    6.4810e+02 ;     C4 - C5     - O4    
     7      8     25      1    1.1143e+02    5.0200e+02 ;     C4 - C5     - C18   
     7      8     38      1    1.0855e+02    3.6233e+02 ;     C4 - C5     - H8    
     8      7     36      1    1.0913e+02    3.6141e+02 ;     C5 - C4     - H6    
     8      7     37      1    1.0913e+02    3.6141e+02 ;     C5 - C4     - H7    
     8      9     10      1    1.1330e+02    7.3873e+02 ;     C5 - O4     - C6    
     8     25     23      1    1.1106e+02    5.0359e+02 ;     C5 - C18    - C17   
     8     25     26      1    1.1005e+02    6.4065e+02 ;     C5 - C18    - O8    
     8     25     53      1    1.0918e+02    3.6217e+02 ;     C5 - C18    - H23   
     9      8     25      1    1.1009e+02    6.3948e+02 ;     O4 - C5     - C18   
     9      8     38      1    1.0808e+02    4.7430e+02 ;     O4 - C5     - H8    
     9     10     11      1    1.0950e+02    8.1613e+02 ;     O4 - C6     - O5    
     9     10     21      1    1.1009e+02    6.3948e+02 ;     O4 - C6     - C16   
     9     10     39      1    1.0944e+02    4.7137e+02 ;     O4 - C6     - H9    
    10     11     12      1    1.1513e+02    7.3354e+02 ;     C6 - O5     - C7    
    10     21     22      1    1.1005e+02    6.4065e+02 ;     C6 - C16    - O6    
    10     21     23      1    1.1106e+02    5.0359e+02 ;     C6 - C16    - C17   
    10     21     49      1    1.0918e+02    3.6217e+02 ;     C6 - C16    - H19   
    11     10     21      1    1.1009e+02    6.3948e+02 ;     O5 - C6     - C16   
    11     10     39      1    1.0944e+02    4.7137e+02 ;     O5 - C6     - H9    
    11     12     13      1    1.0821e+02    6.5287e+02 ;     O5 - C7     - C8    
    11     12     40      1    1.1034e+02    4.7028e+02 ;     O5 - C7     - H10   
    11     12     41      1    1.1034e+02    4.7028e+02 ;     O5 - C7     - H11   
    12     13     14      1    1.2558e+02    5.0710e+02 ;     C7 - C8     - C9    
    12     13     42      1    1.1505e+02    3.5941e+02 ;     C7 - C8     - H12   
    13     12     40      1    1.0996e+02    3.6727e+02 ;     C8 - C7     - H10   
    13     12     41      1    1.0996e+02    3.6727e+02 ;     C8 - C7     - H11   
    13     14     15      1    1.2298e+02    5.1873e+02 ;     C8 - C9     - C10   
    13     14     43      1    1.2000e+02    3.8694e+02 ;     C8 - C9     - H13   
    14     13     42      1    1.2049e+02    3.8618e+02 ;     C9 - C8     - H12   
    14     15     16      1    1.2079e+02    5.1530e+02 ;     C9 - C10    - C11   
    14     15     20      1    1.2079e+02    5.1530e+02 ;     C9 - C10    - C15   
    15     14     43      1    1.1503e+02    3.6560e+02 ;    C10 - C9     - H13   
    15     16     17      1    1.2002e+02    5.3279e+02 ;    C10 - C11    - C12   
    15     16     44      1    1.1988e+02    3.7572e+02 ;    C10 - C11    - H14   
    15     20     19      1    1.2002e+02    5.3279e+02 ;    C10 - C15    - C14   
    15     20     48      1    1.1988e+02    3.7572e+02 ;    C10 - C15    - H18   
    16     15     20      1    1.2002e+02    5.3279e+02 ;    C11 - C10    - C15   
    16     17     18      1    1.2002e+02    5.3279e+02 ;    C11 - C12    - C13   
    16     17     45      1    1.1988e+02    3.7572e+02 ;    C11 - C12    - H15   
    17     16     44      1    1.1988e+02    3.7572e+02 ;    C12 - C11    - H14   
    17     18     19      1    1.2002e+02    5.3279e+02 ;    C12 - C13    - C14   
    17     18     46      1    1.1988e+02    3.7572e+02 ;    C12 - C13    - H16   
    18     17     45      1    1.1988e+02    3.7572e+02 ;    C13 - C12    - H15   
    18     19     20      1    1.2002e+02    5.3279e+02 ;    C13 - C14    - C15   
    18     19     47      1    1.1988e+02    3.7572e+02 ;    C13 - C14    - H17   
    19     18     46      1    1.1988e+02    3.7572e+02 ;    C14 - C13    - H16   
    19     20     48      1    1.1988e+02    3.7572e+02 ;    C14 - C15    - H18   
    20     19     47      1    1.1988e+02    3.7572e+02 ;    C15 - C14    - H17   
    21     10     39      1    1.0998e+02    3.6083e+02 ;    C16 - C6     - H9    
    21     22     50      1    1.0707e+02    5.4584e+02 ;    C16 - O6     - H20   
    21     23     24      1    1.1005e+02    6.4065e+02 ;    C16 - C17    - O7    
    21     23     25      1    1.1106e+02    5.0359e+02 ;    C16 - C17    - C18   
    21     23     51      1    1.0918e+02    3.6217e+02 ;    C16 - C17    - H21   
    22     21     23      1    1.1005e+02    6.4065e+02 ;     O6 - C16    - C17   
    22     21     49      1    1.0996e+02    4.7187e+02 ;     O6 - C16    - H19   
    23     21     49      1    1.0918e+02    3.6217e+02 ;    C17 - C16    - H19   
    23     24     52      1    1.0707e+02    5.4584e+02 ;    C17 - O7     - H22   
    23     25     26      1    1.1005e+02    6.4065e+02 ;    C17 - C18    - O8    
    23     25     53      1    1.0918e+02    3.6217e+02 ;    C17 - C18    - H23   
    24     23     25      1    1.1005e+02    6.4065e+02 ;     O7 - C17    - C18   
    24     23     51      1    1.0996e+02    4.7187e+02 ;     O7 - C17    - H21   
    25      8     38      1    1.0918e+02    3.6217e+02 ;    C18 - C5     - H8    
    25     23     51      1    1.0918e+02    3.6217e+02 ;    C18 - C17    - H21   
    25     26     54      1    1.0707e+02    5.4584e+02 ;    C18 - O8     - H24   
    26     25     53      1    1.0996e+02    4.7187e+02 ;     O8 - C18    - H23   
    27      5     35      1    1.0998e+02    3.6083e+02 ;    C19 - C3     - H5    
    27     28     56      1    1.0707e+02    5.4584e+02 ;    C19 - O9     - H26   
    27     29     30      1    1.1005e+02    6.4065e+02 ;    C19 - C20    - O10   
    27     29     57      1    1.0918e+02    3.6217e+02 ;    C19 - C20    - H27   
    28     27     29      1    1.1005e+02    6.4065e+02 ;     O9 - C19    - C20   
    28     27     55      1    1.0996e+02    4.7187e+02 ;     O9 - C19    - H25   
    29      2     32      1    1.0918e+02    3.6217e+02 ;    C20 - C1     - H2    
    29     27     55      1    1.0918e+02    3.6217e+02 ;    C20 - C19    - H25   
    29     30     58      1    1.0707e+02    5.4584e+02 ;    C20 - O10    - H28   
    30     29     57      1    1.0996e+02    4.7187e+02 ;    O10 - C20    - H27   
    33      3     34      1    1.0750e+02    2.9932e+02 ;     H3 - C2     - H4    
    36      7     37      1    1.0855e+02    2.9824e+02 ;     H6 - C4     - H7    
    40     12     41      1    1.0855e+02    2.9824e+02 ;    H10 - C7     - H11   

[ dihedrals ] ; propers
; for gromacs 4.5 or higher, using funct 9
;    i      j      k      l   func   phase     kd      pn
     1      2      3      4      9     0.00   4.47688   3 ;     O1-    C1-    C2-    O2
     1      2      3      4      9   180.00   2.80328   1 ;     O1-    C1-    C2-    O2
     1      2      3      4      9   180.00   3.05432   2 ;     O1-    C1-    C2-    O2
     1      2      3     33      9     0.00   0.00000   0 ;     O1-    C1-    C2-    H3
     1      2      3     33      9     0.00   1.04600   1 ;     O1-    C1-    C2-    H3
     1      2      3     34      9     0.00   0.00000   0 ;     O1-    C1-    C2-    H4
     1      2      3     34      9     0.00   1.04600   1 ;     O1-    C1-    C2-    H4
     1      2     29     27      9     0.00   0.75312   3 ;     O1-    C1-   C20-   C19
     1      2     29     30      9     0.00   4.18400   1 ;     O1-    C1-   C20-   O10
     1      2     29     30      9     0.00   6.02496   3 ;     O1-    C1-   C20-   O10
     1      2     29     57      9     0.00   0.00000   0 ;     O1-    C1-   C20-   H27
     1      2     29     57      9     0.00   1.04600   1 ;     O1-    C1-   C20-   H27
     2      3      4      5      9     0.00   4.85344   3 ;     C1-    C2-    O2-    C3
     2      3      4      5      9     0.00   5.77392   2 ;     C1-    C2-    O2-    C3
     2      3      4      5      9   180.00   1.46440   1 ;     C1-    C2-    O2-    C3
     2     29     27      5      9     0.00   2.17568   3 ;     C1-   C20-   C19-    C3
     2     29     27     28      9     0.00   0.75312   3 ;     C1-   C20-   C19-    O9
     2     29     27     55      9     0.00   0.65084   3 ;     C1-   C20-   C19-   H25
     2     29     30     58      9     0.00   0.25104   3 ;     C1-   C20-   O10-   H28
     3      2     29     27      9     0.00   2.17568   3 ;     C2-    C1-   C20-   C19
     3      2     29     30      9     0.00   0.75312   3 ;     C2-    C1-   C20-   O10
     3      2     29     57      9     0.00   0.65084   3 ;     C2-    C1-   C20-   H27
     3      4      5      6      9     0.00   0.12552   3 ;     C2-    O2-    C3-    O3
     3      4      5      6      9     0.00   6.23416   2 ;     C2-    O2-    C3-    O3
     3      4      5      6      9   180.00   3.68192   1 ;     C2-    O2-    C3-    O3
     3      4      5     27      9     0.00   4.85344   3 ;     C2-    O2-    C3-   C19
     3      4      5     27      9     0.00   5.77392   2 ;     C2-    O2-    C3-   C19
     3      4      5     27      9   180.00   1.46440   1 ;     C2-    O2-    C3-   C19
     3      4      5     35      9     0.00   1.60387   3 ;     C2-    O2-    C3-    H5
     4      3      2     29      9     0.00   0.65084   3 ;     O2-    C2-    C1-   C20
     4      3      2     32      9     0.00   0.00000   0 ;     O2-    C2-    C1-    H2
     4      3      2     32      9     0.00   1.04600   1 ;     O2-    C2-    C1-    H2
     4      5      6      7      9     0.00   3.55640   2 ;     O2-    C3-    O3-    C4
     4      5      6      7      9     0.00   3.55640   3 ;     O2-    C3-    O3-    C4
     4      5      6      7      9   180.00   1.92464   1 ;     O2-    C3-    O3-    C4
     4      5     27     28      9     0.00   4.47688   3 ;     O2-    C3-   C19-    O9
     4      5     27     28      9   180.00   2.80328   1 ;     O2-    C3-   C19-    O9
     4      5     27     28      9   180.00   3.05432   2 ;     O2-    C3-   C19-    O9
     4      5     27     29      9     0.00   0.65084   3 ;     O2-    C3-   C19-   C20
     4      5     27     55      9     0.00   0.00000   0 ;     O2-    C3-   C19-   H25
     4      5     27     55      9     0.00   1.04600   1 ;     O2-    C3-   C19-   H25
     5      4      3     33      9     0.00   1.41001   3 ;     C3-    O2-    C2-    H3
     5      4      3     34      9     0.00   1.41001   3 ;     C3-    O2-    C2-    H4
     5      6      7      8      9     0.00   0.33472   2 ;     C3-    O3-    C4-    C5
     5      6      7      8      9     0.00   3.13800   3 ;     C3-    O3-    C4-    C5
     5      6      7      8      9   180.00   3.68192   1 ;     C3-    O3-    C4-    C5
     5      6      7     36      9     0.00   1.41001   3 ;     C3-    O3-    C4-    H6
     5      6      7     37      9     0.00   1.41001   3 ;     C3-    O3-    C4-    H7
     5     27     28     56      9     0.00   0.25104   3 ;     C3-   C19-    O9-   H26
     5     27     29     30      9     0.00   0.75312   3 ;     C3-   C19-   C20-   O10
     5     27     29     57      9     0.00   0.65084   3 ;     C3-   C19-   C20-   H27
     6      5     27     28      9     0.00   4.47688   3 ;     O3-    C3-   C19-    O9
     6      5     27     28      9   180.00   2.80328   1 ;     O3-    C3-   C19-    O9
     6      5     27     28      9   180.00   3.05432   2 ;     O3-    C3-   C19-    O9
     6      5     27     29      9     0.00   0.65084   3 ;     O3-    C3-   C19-   C20
     6      5     27     55      9     0.00   0.00000   0 ;     O3-    C3-   C19-   H25
     6      5     27     55      9     0.00   1.04600   1 ;     O3-    C3-   C19-   H25
     6      7      8      9      9     0.00   0.75312   1 ;     O3-    C4-    C5-    O4
     6      7      8      9      9     0.00   2.09200   3 ;     O3-    C4-    C5-    O4
     6      7      8      9      9     0.00   3.76560   2 ;     O3-    C4-    C5-    O4
     6      7      8     25      9     0.00   0.65084   3 ;     O3-    C4-    C5-   C18
     6      7      8     38      9     0.00   0.00000   0 ;     O3-    C4-    C5-    H8
     6      7      8     38      9     0.00   1.04600   1 ;     O3-    C4-    C5-    H8
     7      6      5     27      9     0.00   0.33472   2 ;     C4-    O3-    C3-   C19
     7      6      5     27      9     0.00   3.13800   3 ;     C4-    O3-    C3-   C19
     7      6      5     27      9   180.00   3.68192   1 ;     C4-    O3-    C3-   C19
     7      6      5     35      9     0.00   1.60387   3 ;     C4-    O3-    C3-    H5
     7      8      9     10      9     0.00   0.33472   2 ;     C4-    C5-    O4-    C6
     7      8      9     10      9     0.00   3.13800   3 ;     C4-    C5-    O4-    C6
     7      8      9     10      9   180.00   3.68192   1 ;     C4-    C5-    O4-    C6
     7      8     25     23      9     0.00   2.17568   3 ;     C4-    C5-   C18-   C17
     7      8     25     26      9     0.00   0.75312   3 ;     C4-    C5-   C18-    O8
     7      8     25     53      9     0.00   0.65084   3 ;     C4-    C5-   C18-   H23
     8      9     10     11      9     0.00   0.12552   3 ;     C5-    O4-    C6-    O5
     8      9     10     11      9     0.00   6.23416   2 ;     C5-    O4-    C6-    O5
     8      9     10     11      9   180.00   3.68192   1 ;     C5-    O4-    C6-    O5
     8      9     10     21      9     0.00   4.85344   3 ;     C5-    O4-    C6-   C16
     8      9     10     21      9     0.00   5.77392   2 ;     C5-    O4-    C6-   C16
     8      9     10     21      9   180.00   1.46440   1 ;     C5-    O4-    C6-   C16
     8      9     10     39      9     0.00   1.60387   3 ;     C5-    O4-    C6-    H9
     8     25     23     21      9     0.00   2.17568   3 ;     C5-   C18-   C17-   C16
     8     25     23     24      9     0.00   0.75312   3 ;     C5-   C18-   C17-    O7
     8     25     23     51      9     0.00   0.65084   3 ;     C5-   C18-   C17-   H21
     8     25     26     54      9     0.00   0.25104   3 ;     C5-   C18-    O8-   H24
     9      8      7     36      9     0.00   0.00000   0 ;     O4-    C5-    C4-    H6
     9      8      7     36      9     0.00   1.04600   1 ;     O4-    C5-    C4-    H6
     9      8      7     37      9     0.00   0.00000   0 ;     O4-    C5-    C4-    H7
     9      8      7     37      9     0.00   1.04600   1 ;     O4-    C5-    C4-    H7
     9      8     25     23      9     0.00   0.65084   3 ;     O4-    C5-   C18-   C17
     9      8     25     26      9     0.00   4.47688   3 ;     O4-    C5-   C18-    O8
     9      8     25     26      9   180.00   2.80328   1 ;     O4-    C5-   C18-    O8
     9      8     25     26      9   180.00   3.05432   2 ;     O4-    C5-   C18-    O8
     9      8     25     53      9     0.00   0.00000   0 ;     O4-    C5-   C18-   H23
     9      8     25     53      9     0.00   1.04600   1 ;     O4-    C5-   C18-   H23
     9     10     11     12      9     0.00   3.55640   2 ;     O4-    C6-    O5-    C7
     9     10     11     12      9     0.00   3.55640   3 ;     O4-    C6-    O5-    C7
     9     10     11     12      9   180.00   1.92464   1 ;     O4-    C6-    O5-    C7
     9     10     21     22      9     0.00   4.47688   3 ;     O4-    C6-   C16-    O6
     9     10     21     22      9   180.00   2.80328   1 ;     O4-    C6-   C16-    O6
     9     10     21     22      9   180.00   3.05432   2 ;     O4-    C6-   C16-    O6
     9     10     21     23      9     0.00   0.65084   3 ;     O4-    C6-   C16-   C17
     9     10     21     49      9     0.00   0.00000   0 ;     O4-    C6-   C16-   H19
     9     10     21     49      9     0.00   1.04600   1 ;     O4-    C6-   C16-   H19
    10      9      8     25      9     0.00   4.85344   3 ;     C6-    O4-    C5-   C18
    10      9      8     25      9     0.00   5.77392   2 ;     C6-    O4-    C5-   C18
    10      9      8     25      9   180.00   1.46440   1 ;     C6-    O4-    C5-   C18
    10      9      8     38      9     0.00   1.41001   3 ;     C6-    O4-    C5-    H8
    10     11     12     13      9     0.00   1.60387   3 ;     C6-    O5-    C7-    C8
    10     11     12     40      9     0.00   1.41001   3 ;     C6-    O5-    C7-   H10
    10     11     12     41      9     0.00   1.41001   3 ;     C6-    O5-    C7-   H11
    10     21     22     50      9     0.00   0.25104   3 ;     C6-   C16-    O6-   H20
    10     21     23     24      9     0.00   0.75312   3 ;     C6-   C16-   C17-    O7
    10     21     23     25      9     0.00   2.17568   3 ;     C6-   C16-   C17-   C18
    10     21     23     51      9     0.00   0.65084   3 ;     C6-   C16-   C17-   H21
    11     10     21     22      9     0.00   4.47688   3 ;     O5-    C6-   C16-    O6
    11     10     21     22      9   180.00   2.80328   1 ;     O5-    C6-   C16-    O6
    11     10     21     22      9   180.00   3.05432   2 ;     O5-    C6-   C16-    O6
    11     10     21     23      9     0.00   0.65084   3 ;     O5-    C6-   C16-   C17
    11     10     21     49      9     0.00   0.00000   0 ;     O5-    C6-   C16-   H19
    11     10     21     49      9     0.00   1.04600   1 ;     O5-    C6-   C16-   H19
    11     12     13     14      9     0.00   0.00000   0 ;     O5-    C7-    C8-    C9
    11     12     13     42      9     0.00   0.00000   0 ;     O5-    C7-    C8-   H12
    12     11     10     21      9     0.00   0.33472   2 ;     C7-    O5-    C6-   C16
    12     11     10     21      9     0.00   3.13800   3 ;     C7-    O5-    C6-   C16
    12     11     10     21      9   180.00   3.68192   1 ;     C7-    O5-    C6-   C16
    12     11     10     39      9     0.00   1.60387   3 ;     C7-    O5-    C6-    H9
    12     13     14     15      9   180.00  27.82360   2 ;     C7-    C8-    C9-   C10
    12     13     14     43      9   180.00  27.82360   2 ;     C7-    C8-    C9-   H13
    13     14     15     16      9   180.00   2.44764   2 ;     C8-    C9-   C10-   C11
    13     14     15     20      9   180.00   2.44764   2 ;     C8-    C9-   C10-   C15
    14     13     12     40      9     0.00   0.00000   0 ;     C9-    C8-    C7-   H10
    14     13     12     41      9     0.00   0.00000   0 ;     C9-    C8-    C7-   H11
    14     15     16     17      9   180.00  15.16700   2 ;     C9-   C10-   C11-   C12
    14     15     16     44      9   180.00  15.16700   2 ;     C9-   C10-   C11-   H14
    14     15     20     19      9   180.00  15.16700   2 ;     C9-   C10-   C15-   C14
    14     15     20     48      9   180.00  15.16700   2 ;     C9-   C10-   C15-   H18
    15     14     13     42      9   180.00  27.82360   2 ;    C10-    C9-    C8-   H12
    15     16     17     18      9   180.00  15.16700   2 ;    C10-   C11-   C12-   C13
    15     16     17     45      9   180.00  15.16700   2 ;    C10-   C11-   C12-   H15
    15     20     19     18      9   180.00  15.16700   2 ;    C10-   C15-   C14-   C13
    15     20     19     47      9   180.00  15.16700   2 ;    C10-   C15-   C14-   H17
    16     15     14     43      9   180.00   2.92880   2 ;    C11-   C10-    C9-   H13
    16     15     20     19      9   180.00  15.16700   2 ;    C11-   C10-   C15-   C14
    16     15     20     48      9   180.00  15.16700   2 ;    C11-   C10-   C15-   H18
    16     17     18     19      9   180.00  15.16700   2 ;    C11-   C12-   C13-   C14
    16     17     18     46      9   180.00  15.16700   2 ;    C11-   C12-   C13-   H16
    17     16     15     20      9   180.00  15.16700   2 ;    C12-   C11-   C10-   C15
    17     18     19     20      9   180.00  15.16700   2 ;    C12-   C13-   C14-   C15
    17     18     19     47      9   180.00  15.16700   2 ;    C12-   C13-   C14-   H17
    18     17     16     44      9   180.00  15.16700   2 ;    C13-   C12-   C11-   H14
    18     19     20     48      9   180.00  15.16700   2 ;    C13-   C14-   C15-   H18
    19     18     17     45      9   180.00  15.16700   2 ;    C14-   C13-   C12-   H15
    20     15     14     43      9   180.00   2.92880   2 ;    C15-   C10-    C9-   H13
    20     15     16     44      9   180.00  15.16700   2 ;    C15-   C10-   C11-   H14
    20     19     18     46      9   180.00  15.16700   2 ;    C15-   C14-   C13-   H16
    21     23     24     52      9     0.00   0.25104   3 ;    C16-   C17-    O7-   H22
    21     23     25     26      9     0.00   0.75312   3 ;    C16-   C17-   C18-    O8
    21     23     25     53      9     0.00   0.65084   3 ;    C16-   C17-   C18-   H23
    22     21     10     39      9     0.00   0.65084   3 ;     O6-   C16-    C6-    H9
    22     21     23     24      9     0.00   4.18400   1 ;     O6-   C16-   C17-    O7
    22     21     23     24      9     0.00   6.02496   3 ;     O6-   C16-   C17-    O7
    22     21     23     25      9     0.00   0.75312   3 ;     O6-   C16-   C17-   C18
    22     21     23     51      9     0.00   0.00000   0 ;     O6-   C16-   C17-   H21
    22     21     23     51      9     0.00   1.04600   1 ;     O6-   C16-   C17-   H21
    23     21     10     39      9     0.00   0.65084   3 ;    C17-   C16-    C6-    H9
    23     21     22     50      9     0.00   0.25104   3 ;    C17-   C16-    O6-   H20
    23     25      8     38      9     0.00   0.65084   3 ;    C17-   C18-    C5-    H8
    23     25     26     54      9     0.00   0.25104   3 ;    C17-   C18-    O8-   H24
    24     23     21     49      9     0.00   0.00000   0 ;     O7-   C17-   C16-   H19
    24     23     21     49      9     0.00   1.04600   1 ;     O7-   C17-   C16-   H19
    24     23     25     26      9     0.00   4.18400   1 ;     O7-   C17-   C18-    O8
    24     23     25     26      9     0.00   6.02496   3 ;     O7-   C17-   C18-    O8
    24     23     25     53      9     0.00   0.00000   0 ;     O7-   C17-   C18-   H23
    24     23     25     53      9     0.00   1.04600   1 ;     O7-   C17-   C18-   H23
    25      8      7     36      9     0.00   0.65084   3 ;    C18-    C5-    C4-    H6
    25      8      7     37      9     0.00   0.65084   3 ;    C18-    C5-    C4-    H7
    25     23     21     49      9     0.00   0.65084   3 ;    C18-   C17-   C16-   H19
    25     23     24     52      9     0.00   0.25104   3 ;    C18-   C17-    O7-   H22
    26     25      8     38      9     0.00   0.00000   0 ;     O8-   C18-    C5-    H8
    26     25      8     38      9     0.00   1.04600   1 ;     O8-   C18-    C5-    H8
    26     25     23     51      9     0.00   0.00000   0 ;     O8-   C18-   C17-   H21
    26     25     23     51      9     0.00   1.04600   1 ;     O8-   C18-   C17-   H21
    27     29      2     32      9     0.00   0.65084   3 ;    C19-   C20-    C1-    H2
    27     29     30     58      9     0.00   0.25104   3 ;    C19-   C20-   O10-   H28
    28     27      5     35      9     0.00   0.65084   3 ;     O9-   C19-    C3-    H5
    28     27     29     30      9     0.00   4.18400   1 ;     O9-   C19-   C20-   O10
    28     27     29     30      9     0.00   6.02496   3 ;     O9-   C19-   C20-   O10
    28     27     29     57      9     0.00   0.00000   0 ;     O9-   C19-   C20-   H27
    28     27     29     57      9     0.00   1.04600   1 ;     O9-   C19-   C20-   H27
    29      2      3     33      9     0.00   0.65084   3 ;    C20-    C1-    C2-    H3
    29      2      3     34      9     0.00   0.65084   3 ;    C20-    C1-    C2-    H4
    29     27      5     35      9     0.00   0.65084   3 ;    C20-   C19-    C3-    H5
    29     27     28     56      9     0.00   0.25104   3 ;    C20-   C19-    O9-   H26
    30     29      2     32      9     0.00   0.00000   0 ;    O10-   C20-    C1-    H2
    30     29      2     32      9     0.00   1.04600   1 ;    O10-   C20-    C1-    H2
    30     29     27     55      9     0.00   0.00000   0 ;    O10-   C20-   C19-   H25
    30     29     27     55      9     0.00   1.04600   1 ;    O10-   C20-   C19-   H25
    31      1      2      3      9     0.00   0.25104   3 ;     H1-    O1-    C1-    C2
    31      1      2     29      9     0.00   0.25104   3 ;     H1-    O1-    C1-   C20
    31      1      2     32      9     0.00   0.51463   3 ;     H1-    O1-    C1-    H2
    32      2      3     33      9     0.00   0.65084   3 ;     H2-    C1-    C2-    H3
    32      2      3     34      9     0.00   0.65084   3 ;     H2-    C1-    C2-    H4
    32      2     29     57      9     0.00   0.65084   3 ;     H2-    C1-   C20-   H27
    35      5     27     55      9     0.00   0.65084   3 ;     H5-    C3-   C19-   H25
    36      7      8     38      9     0.00   0.65084   3 ;     H6-    C4-    C5-    H8
    37      7      8     38      9     0.00   0.65084   3 ;     H7-    C4-    C5-    H8
    38      8     25     53      9     0.00   0.65084   3 ;     H8-    C5-   C18-   H23
    39     10     21     49      9     0.00   0.65084   3 ;     H9-    C6-   C16-   H19
    40     12     13     42      9     0.00   0.00000   0 ;    H10-    C7-    C8-   H12
    41     12     13     42      9     0.00   0.00000   0 ;    H11-    C7-    C8-   H12
    42     13     14     43      9   180.00  27.82360   2 ;    H12-    C8-    C9-   H13
    44     16     17     45      9   180.00  15.16700   2 ;    H14-   C11-   C12-   H15
    45     17     18     46      9   180.00  15.16700   2 ;    H15-   C12-   C13-   H16
    46     18     19     47      9   180.00  15.16700   2 ;    H16-   C13-   C14-   H17
    47     19     20     48      9   180.00  15.16700   2 ;    H17-   C14-   C15-   H18
    49     21     22     50      9     0.00   0.51463   3 ;    H19-   C16-    O6-   H20
    49     21     23     51      9     0.00   0.65084   3 ;    H19-   C16-   C17-   H21
    51     23     24     52      9     0.00   0.51463   3 ;    H21-   C17-    O7-   H22
    51     23     25     53      9     0.00   0.65084   3 ;    H21-   C17-   C18-   H23
    53     25     26     54      9     0.00   0.51463   3 ;    H23-   C18-    O8-   H24
    55     27     28     56      9     0.00   0.51463   3 ;    H25-   C19-    O9-   H26
    55     27     29     57      9     0.00   0.65084   3 ;    H25-   C19-   C20-   H27
    57     29     30     58      9     0.00   0.51463   3 ;    H27-   C20-   O10-   H28

[ dihedrals ] ; impropers
; treated as propers in GROMACS to use correct AMBER analytical function
;    i      j      k      l   func   phase     kd      pn
    12     14     13     42      4   180.00   4.60240   2 ;     C7-    C9-    C8-   H12
    13     15     14     43      4   180.00   4.60240   2 ;     C8-   C10-    C9-   H13
    15     17     16     44      4   180.00   4.60240   2 ;    C10-   C12-   C11-   H14
    15     19     20     48      4   180.00   4.60240   2 ;    C10-   C14-   C15-   H18
    16     18     17     45      4   180.00   4.60240   2 ;    C11-   C13-   C12-   H15
    16     20     15     14      4   180.00   4.60240   2 ;    C11-   C15-   C10-    C9
    17     19     18     46      4   180.00   4.60240   2 ;    C12-   C14-   C13-   H16
    18     20     19     47      4   180.00   4.60240   2 ;    C13-   C15-   C14-   H17
