; Rosin + H2O2 topology
#include "amber99sb.ff/forcefield.itp"
#include "rosin_GMX.itp"
#ifdef POSRES
#include "posre_rosin.itp"
#endif
#include "h2o2.itp"
#include "amber99sb.ff/tip3p.itp"
#include "amber99sb.ff/ions.itp"

[ system ]
Rosin + H2O2 in water

[ molecules ]
; Compound        #mols
rosin               1
H2O2                1
SOL              1689
