rosavin_new_GMX.gro created by acpype (v: 2023.10.27) 
 58
    1  UNL   O1    1  -0.386   0.229  -0.109
    1  UNL   C1    2  -0.303   0.157  -0.203
    1  UNL   C2    3  -0.167   0.126  -0.139
    1  UNL   O2    4  -0.116   0.002  -0.187
    1  UNL   C3    5  -0.192  -0.111  -0.143
    1  UNL   O3    6  -0.157  -0.152  -0.010
    1  UNL   C4    7  -0.015  -0.160   0.009
    1  UNL   C5    8   0.018  -0.242   0.134
    1  UNL   O4    9   0.159  -0.233   0.162
    1  UNL   C6   10   0.192  -0.146   0.271
    1  UNL   O5   11   0.147  -0.013   0.244
    1  UNL   C7   12   0.252   0.081   0.223
    1  UNL   C8   13   0.275   0.097   0.075
    1  UNL   C9   14   0.248   0.210   0.008
    1  UNL  C10   15   0.274   0.233  -0.135
    1  UNL  C11   16   0.297   0.364  -0.179
    1  UNL  C12   17   0.324   0.391  -0.314
    1  UNL  C13   18   0.328   0.287  -0.406
    1  UNL  C14   19   0.302   0.156  -0.364
    1  UNL  C15   20   0.275   0.129  -0.230
    1  UNL  C16   21   0.127  -0.192   0.404
    1  UNL   O6   22   0.214  -0.280   0.478
    1  UNL  C17   23  -0.006  -0.265   0.379
    1  UNL   O7   24  -0.091  -0.249   0.493
    1  UNL  C18   25  -0.073  -0.211   0.253
    1  UNL   O8   26  -0.202  -0.273   0.240
    1  UNL  C19   27  -0.345  -0.085  -0.147
    1  UNL   O9   28  -0.417  -0.204  -0.186
    1  UNL  C20   29  -0.376   0.028  -0.245
    1  UNL  O10   30  -0.518   0.050  -0.249
    1  UNL   H1   31  -0.343   0.315  -0.093
    1  UNL   H2   32  -0.292   0.221  -0.291
    1  UNL   H3   33  -0.096   0.205  -0.165
    1  UNL   H4   34  -0.173   0.124  -0.029
    1  UNL   H5   35  -0.167  -0.194  -0.211
    1  UNL   H6   36   0.034  -0.206  -0.079
    1  UNL   H7   37   0.025  -0.058   0.018
    1  UNL   H8   38   0.000  -0.347   0.106
    1  UNL   H9   39   0.301  -0.150   0.282
    1  UNL  H10   40   0.219   0.176   0.267
    1  UNL  H11   41   0.345   0.054   0.274
    1  UNL  H12   42   0.319   0.010   0.024
    1  UNL  H13   43   0.206   0.296   0.062
    1  UNL  H14   44   0.296   0.447  -0.109
    1  UNL  H15   45   0.343   0.493  -0.346
    1  UNL  H16   46   0.350   0.307  -0.510
    1  UNL  H17   47   0.305   0.074  -0.436
    1  UNL  H18   48   0.253   0.026  -0.201
    1  UNL  H19   49   0.111  -0.105   0.469
    1  UNL  H20   50   0.163  -0.310   0.555
    1  UNL  H21   51   0.011  -0.373   0.369
    1  UNL  H22   52  -0.180  -0.272   0.461
    1  UNL  H23   53  -0.092  -0.103   0.264
    1  UNL  H24   54  -0.235  -0.245   0.151
    1  UNL  H25   55  -0.383  -0.059  -0.047
    1  UNL  H26   56  -0.505  -0.172  -0.214
    1  UNL  H27   57  -0.346  -0.002  -0.346
    1  UNL  H28   58  -0.535   0.122  -0.185
   17.69800    17.31400    21.29800
