title                   = Production MD
integrator              = md
nsteps                  = 5000000
dt                      = 0.002
nstxout-compressed      = 1000
nstenergy               = 1000
nstlog                  = 1000
cutoff-scheme           = Verlet
nstlist                 = 10
coulombtype             = PME
rcoulomb                = 1.0
rvdw                    = 1.0
tcoupl                  = V-rescale
tc-grps                 = System
tau_t                   = 0.1
ref_t                   = 300
pcoupl                  = Parrinello-Rahman
pcoupltype              = isotropic
tau_p                   = 2.0
ref_p                   = 1.0
compressibility         = 4.5e-5
constraints             = h-bonds
constraint_algorithm    = lincs
pbc                     = xyz
gen_vel                 = yes
gen_temp                = 300
gen_seed                = -1
